<?xml version="1.0"?>
<VTKFile type="UnstructuredGrid"  version="0.1"  >
<UnstructuredGrid>
<Piece  NumberOfPoints="747" NumberOfCells="1165">
<Points>
<DataArray  type="Float64"  NumberOfComponents="3"  format="ascii">56818.26305072499 -2506106.549119427 0  42243.18265024776 -2506857.639328673 0  29021.82503270428 -2504261.924403077 0  16550.12421826219 -2499855.084024415 0  4655.032296222308 -2495697.422200306 0  -7261.504300492456 -2494323.621393709 0  -18625.22209185599 -2493319.244519799 0  -29276.70419068305 -2491316.102597814 0  -39371.58555411869 -2489334.610554085 0  -48872.2887625367 -2487148.664179707 0  -56975.1983834749 -2482507.606906727 0  -64856.00389190487 -2478322.793323702 0  -73044.09528138349 -2475914.932075506 0  -80956.89453806292 -2474104.027428716 0  -88297.01099239565 -2471721.028140273 0  -95122.34251075231 -2468979.68610345 0  -102033.0976717825 -2467743.453790383 0  -108667.8585333195 -2467170.433637599 0  -114915.9932325953 -2465984.168528114 0  -120845.1804641294 -2464950.543945178 0  -126578.8706923529 -2464806.636550912 0  -131905.6385080613 -2465871.725308503 0  -137064.687279085 -2466513.84235653 0  -141931.6894689468 -2467114.408289441 0  -146558.2518132151 -2467929.3528441 0  -150981.1782706213 -2468467.119438711 0  -155134.7485423184 -2469150.351715567 0  -159045.2990449393 -2470116.702174883 0  -162783.5633652424 -2470995.874606837 0  -166363.671458142 -2471566.36883454 0  -169791.2094945778 -2472089.92531744 0  -173066.7170363216 -2472372.644023074 0  -176180.8272511644 -2472318.589143077 0  -179127.4549433015 -2471957.228690146 0  -181904.9538427488 -2471408.024018189 0  -184523.0000848745 -2470783.818157519 0  -187005.1824092157 -2470191.610932166 0  -189371.4710935979 -2469697.441393066 0  -191637.2486669229 -2469286.956885205 0  -193813.7840475813 -2468932.72635197 0  -195894.9751436561 -2468622.32397195 0  -197860.5122662469 -2468356.257574914 0  -199699.8496405249 -2468131.239090017 0  -201484.3799547247 -2467852.578310028 0  -203235.1081836333 -2467477.120196301 0  -204148.4039899458 -2468231.328417643 0  -204779.4006070163 -2469477.772737175 0  -206226.3182912302 -2469895.043213626 0  -207209.0484690831 -2471050.353437294 0  -206633.7342709575 -2472198.562901576 0  -206689.2205673746 -2473699.963528 0  -207439.3355646643 -2474578.344737141 0  -208686.077261504 -2475226.075148567 0  -208911.224951669 -2476610.681926033 0  -209786.4032029276 -2477610.304923216 0  -210530.8593792382 -2478701.972600761 0  -211347.3117581898 -2479598.487775704 0  -212436.1994711102 -2480321.158208149 0  -211661.3579813032 -2481227.303558039 0  -212339.4592376566 -2482164.498648201 0  -213368.6786835724 -2482893.361192783 0  -213823.9242874084 -2483849.45466838 0  -213959.3389029546 -2484975.339969706 0  -214654.5105929325 -2485857.893728198 0  -214924.9636302208 -2486897.99052352 0  -215387.1968803907 -2487861.977722809 0  -215850.8935184235 -2488606.845677634 0  -216850.3002300822 -2488718.42607849 0  -217786.1788875306 -2488773.814743428 0  -218655.6596527224 -2488960.510713411 0  -219459.2999881662 -2489050.843080118 0  -220215.8572609511 -2489415.86959818 0  -220949.8949656503 -2489578.990779826 0  -221671.8184129359 -2489638.232601265 0  -222360.8395383537 -2489613.467831609 0  -222996.7344008797 -2489634.843068176 0  -223565.7511683207 -2489892.292788903 0  -224056.7930683517 -2490349.213746534 0  -224487.3350267241 -2490843.9928667 0  -224917.776609416 -2491084.259717198 0  -225385.9512610532 -2490939.6600004 0  -225871.0057115029 -2490692.412192973 0  -226347.6588061106 -2490593.974681439 0  -226807.4764604085 -2490599.669749292 0  -227247.6549526961 -2490611.50259405 0  -227666.4916287626 -2490611.945233863 0  -228063.1258911103 -2490614.649470013 0  -228437.2792766626 -2490619.621715965 0  -228789.0148414041 -2490611.440145575 0  -229118.6979285175 -2490579.661792117 0  -229427.7721220893 -2490551.675512337 0  -229718.2857126026 -2490575.632414152 0  -229992.0195062686 -2490686.778079117 0  -230250.5004979436 -2490869.571547285 0  -230495.0197162354 -2491060.637110347 0  -230726.6693575185 -2491208.220350035 0  -230946.3810285181 -2491273.695406383 0  -231155.1727872346 -2491240.482369016 0  -231354.5763814056 -2491151.916669652 0  -231546.3204437924 -2491058.490694704 0  -231732.1881906295 -2491000.058362073 0  -231914.0081666783 -2491009.477644776 0  -232092.2357485933 -2491100.02032591 0  -232263.9691545902 -2491246.068674924 0  -232425.9547039263 -2491419.407037552 0  -232574.5133449228 -2491597.360932464 0  -232704.8009038861 -2491776.874946281 0  -232810.4395700074 -2491960.360275827 0  -232883.2341085825 -2492150.113137818 0  -232912.9947800571 -2492348.349496039 0  -232888.518304726 -2492556.97189473 0  -232809.3398841225 -2492774.886297886 0  -232684.053466982 -2492998.772055723 0  -232523.4050637269 -2493224.618723386 0  -232341.870709994 -2493446.437774289 0  -232149.8049278373 -2493655.556957558 0  -231926.4623607639 -2493840.270994475 0  -231648.985213168 -2493990.591921999 0  -231333.5089516883 -2494114.232577013 0  -231011.2867655237 -2494226.909041754 0  -230716.5565724511 -2494352.83929517 0  -230448.2156366009 -2494566.308324145 0  -230174.691868224 -2494859.203920859 0  -229854.386277046 -2495099.245907737 0  -229456.0482055206 -2495181.232778375 0  -228998.936468587 -2495162.974046715 0  -228517.5500007842 -2495146.384058104 0  -228039.7566338337 -2495203.170887594 0  -227590.3999753736 -2495397.522350929 0  -227184.981929657 -2495766.19833274 0  -226750.2922870113 -2496024.476637892 0  -226213.5702095754 -2495994.660255382 0  -225600.3011662167 -2496052.877603892 0  -224958.9944484101 -2496261.85032066 0  -224327.7512929673 -2496330.814093316 0  -223631.5812784273 -2496280.649748585 0  -222879.2998883054 -2496301.667794817 0  -222254.9783848506 -2496634.523083093 0  -221626.1319051044 -2497065.090720322 0  -220761.0581340182 -2497211.459477382 0  -219968.5459241767 -2497393.939598728 0  -220203.5455070361 -2497899.480461085 0  -220855.9220298611 -2498603.237242675 0  -221131.2246077028 -2499252.862384938 0  -221774.7122121719 -2499660.862433717 0  -222479.7107982228 -2499760.827055608 0  -223033.1183148655 -2499984.859791101 0  -223490.2596104009 -2500462.200395656 0  -224062.3926326139 -2500600.027660071 0  -224541.1956214423 -2500228.786139573 0  -224949.7350095029 -2499888.083019758 0  -225341.0500730075 -2500225.130315016 0  -225757.1423292761 -2500548.432558256 0  -226180.3939651776 -2500786.080344201 0  -226538.177938963 -2501153.984901021 0  -226773.495284157 -2501569.98568693 0  -227039.0304909855 -2501911.932245616 0  -227468.9595916819 -2502129.814972885 0  -227798.6047508129 -2502389.299855465 0  -227884.9238541838 -2502832.388358992 0  -228126.2989976085 -2503276.196050428 0  -227861.5342855403 -2503623.445554566 0  -227372.9304734626 -2503907.390885711 0  -226957.5853764467 -2504175.647480549 0  -226606.2579015691 -2504483.304832757 0  -226161.0056828749 -2504866.856449728 0  -225815.0711509458 -2505316.314749662 0  -225762.8994468044 -2505806.079859471 0  -225997.7594286802 -2506242.915512673 0  -226398.1360973342 -2506619.148825204 0  -226765.9297719086 -2507036.084494513 0  -226845.4953021393 -2507500.960872594 0  -226465.0153921999 -2507962.631785552 0  -225845.8228635425 -2508243.541008709 0  -225251.6156104354 -2508190.021993677 0  -224690.1793840567 -2507897.641923884 0  -224100.3548492745 -2507553.624348171 0  -223414.5727227449 -2507371.21363621 0  -222654.4265297953 -2507276.075847208 0  -221912.0382560525 -2507297.337862614 0  -221266.9189332082 -2507785.266418245 0  -220681.0921292723 -2508353.609471263 0  -220062.6686429494 -2509000.329523423 0  -219236.8308144344 -2509174.655190252 0  -218255.6568359406 -2509399.603364403 0  -218572.4131759723 -2510066.725015923 0  -218861.5230561548 -2510964.91864626 0  -218883.3556157417 -2511846.204517832 0  -219353.8346553762 -2512525.731451487 0  -219963.2685976659 -2513082.42119797 0  -220488.7752431028 -2513679.96717993 0  -220885.2380172826 -2514382.263808274 0  -220990.1132767769 -2515108.665935786 0  -221485.0382534687 -2515632.998891791 0  -222155.0186764667 -2516036.139659067 0  -222390.5819874348 -2516597.550678985 0  -221683.5075769027 -2517109.541916781 0  -221049.1691573458 -2517587.936233334 0  -220341.3916149238 -2518020.204995572 0  -219495.2331410376 -2518369.688367899 0  -219546.7035698217 -2519131.218151119 0  -219685.2088385221 -2520038.091014113 0  -219723.4857113709 -2520890.499102236 0  -219511.8253665795 -2521706.050384868 0  -218768.9497051224 -2522318.273173176 0  -218062.3835558011 -2522951.471679174 0  -217792.1932780886 -2523832.754628343 0  -217721.1829300973 -2524802.156087346 0  -217105.5823664274 -2525632.89503949 0  -216114.3489158486 -2526130.198485046 0  -215762.8823642595 -2526977.667966621 0  -215624.0210213385 -2528047.606007989 0  -215626.57696477 -2529136.754249504 0  -215068.1955778405 -2530004.876344503 0  -214353.5819060722 -2530902.512838067 0  -213458.5631825881 -2531647.245829566 0  -212582.3066935458 -2532532.655828057 0  -211601.1993616105 -2533281.698502241 0  -210230.8203599756 -2533492.702960313 0  -209359.9819486135 -2532733.353591639 0  -207963.7301089823 -2532402.039407601 0  -207461.9620998055 -2533726.636299287 0  -206743.678788939 -2535012.373417936 0  -207794.6479248811 -2535697.474151645 0  -208706.2824926935 -2536681.47128792 0  -208662.8240783605 -2538140.018106792 0  -209359.9957095342 -2539157.350742796 0  -209716.6789857079 -2540401.743356431 0  -208811.4519281083 -2541468.645140812 0  -209077.7529802741 -2542648.334750617 0  -210420.4603172865 -2542562.067677911 0  -211621.9917404423 -2542541.993928391 0  -212754.33587808 -2543120.703356035 0  -212519.6312691136 -2544241.062718421 0  -213084.8685374894 -2545195.129669076 0  -214049.5779914909 -2545637.606566725 0  -215070.0904746166 -2545977.323497721 0  -215634.1102203288 -2546825.493334641 0  -215621.16885731 -2547930.190942091 0  -214942.2606588054 -2548830.648553029 0  -2
[...]
<PointData  Scalars="f_47"> 
<DataArray  type="Float64"  Name="f_47"  format="ascii">-8.9039536294382788e+00  -1.0133442177431375e+01  -1.2871927330832376e+01  -1.4854352064332318e+01  -1.7468462413065165e+01  -1.9660803477466274e+01  -2.1028819390185706e+01  -2.3259562349433992e+01  -2.5866747979600621e+01  -2.8431054707608606e+01  -3.0476306426221186e+01  -3.3976102897108021e+01  -3.5491384430636536e+01  -4.0255243812042401e+01  -4.1765219008239704e+01  -4.5010231324063341e+01  -4.9163236883846878e+01  -5.0852359568175679e+01  -5.3473813636662939e+01  -5.5582381219746310e+01  -5.8018170084865702e+01  -5.8433408706564109e+01  -5.8430787170242745e+01  -5.8991627109089883e+01  -5.8602883380429745e+01  -5.8523565535180609e+01  -5.9280461621402878e+01  -6.0445320797721052e+01  -6.1788858196905736e+01  -6.2260475317999479e+01  -5.6884370305530254e+01  -4.7264855754968245e+01  -5.1660065497608990e+01  -5.0639418093670621e+01  -4.9122509547882359e+01  -4.6909544411149263e+01  -4.3128918034589667e+01  -4.4656192689296894e+01  -4.7304515253344974e+01  -5.0628097789087683e+01  -4.4717468368108442e+01  -4.3261157430466262e+01  -3.8025269719179761e+01  -3.1318345954866743e+01  -1.7710428037534996e+01  -1.4874113548554499e+01  -1.7276032729710426e+01  -2.7521841325515545e+01  -2.4712865504455486e+01  -1.5179590691568777e+01  -3.2878696752459344e+00  -1.9558113168479943e+00  -1.2717671593609350e+00  -7.0479259696323293e+00  -9.3106871270935194e+00  -1.4904826713920375e+01  -2.8050145240115818e+01  -4.1620120430299202e+01  -3.2395816943885677e+01  -2.1933177743229830e+01  -9.1747902577918090e+00  -7.0767644228101370e+00  -8.4144827819348755e+00  -5.3253329887815148e+00  -9.0394805486282248e+00  -8.3237316216271999e+00  -6.8674750736864816e+00  -7.5663883230411768e+00  -8.8483459605881851e+00  -1.0222829658179657e+01  -9.7255612592861080e+00  -1.1371773001589583e+01  -8.0882299948621057e+00  -6.9129954321307157e+00  -5.4934104268425434e+00  -5.4444351484062734e+00  -5.5962090284931802e+00  -5.0398484632739740e+00  -8.9225086049023830e+00  -8.6718849117424099e+00  -7.9848516005329397e+00  -5.4704911339736952e+00  -3.9336949994392398e+00  -3.8888143322527977e+00  -3.4675391470236092e+00  -2.6837734492675942e+00  -2.7775155490941157e+00  -4.3027354990628330e+00  -5.3864074783718037e+00  -4.9138418694530657e+00  -3.9633353837573968e+00  -4.5399948140121564e+00  -7.6297947688168923e+00  -1.1888820023140291e+01  -1.5614450858434136e+01  -1.7605317778768931e+01  -1.7696482616401834e+01  -1.8670945018769071e+01  -1.8012638307625242e+01  -1.6831101374941717e+01  -1.6301235458615693e+01  -1.7654160968530480e+01  -1.8218991151797287e+01  -1.9396551169284876e+01  -2.0338129878120888e+01  -1.9049349025553905e+01  -1.7784602129255106e+01  -1.6835949706080548e+01  -1.6507004568017454e+01  -1.7196439633796750e+01  -1.6298730722890053e+01  -1.4428338948913570e+01  -1.2555135708248036e+01  -1.0023847891317530e+01  -6.8074725226653978e+00  -6.3715999585635190e+00  -5.6196986885059479e+00  -6.3118350324046801e+00  -6.2492373125613749e+00  -5.0329845397310295e+00  -3.4133487416513346e+00  -2.9663243167516056e+00  -3.2758694774266761e+00  -2.8878641765211626e+00  -3.7257970099588329e+00  -5.9949988516371091e+00  -8.5204397998638424e+00  -8.7920939986164655e+00  -4.6889936953657623e+00  -3.9479810173924101e+00  -3.1700360465633057e+00  -4.8025894330829493e+00  -6.7778435288123937e+00  -5.9464792258590631e+00  -3.8251812022845302e+00  -4.9248149914882200e+00  -4.4186804270087165e+00  -1.0274370382901328e+00  -9.6489539595469120e-01  -2.8101246372484967e+00  -8.3964695109536329e+00  -8.5805499633070639e+00  -4.5215675078153241e+00  -1.1124477214519132e+01  -1.4884339760657449e+01  -8.4877302984521137e+00  -4.1034176883464184e+00  -4.1458657243761330e+00  -4.2931036709844319e+00  -8.5121968250204627e-01  -5.0508128230980087e-01  -1.5472788275801592e+00  -3.5842974172734361e+00  -4.0731999119654754e+00  -3.2989728551847373e+00  -6.4360824224295623e+00  -1.5814423012112636e+01  -2.0317852614360014e+01  -2.5209306956583408e+01  -3.7093989665778054e+01  -4.4479390092388385e+01  -4.3637495798562234e+01  -3.3731865764086358e+01  -2.2861806799283997e+01  -1.7679373976508785e+01  -1.8649123852481623e+01  -8.1913714611961890e+00  -1.1196492508090993e+01  -1.2982208454221746e+01  -9.9313658404174703e+00  -5.5016488624071371e+00  -5.2894935548156941e+00  -5.8727226063649951e+00  -3.6526566281435970e+00  -3.4369258593944414e+00  -5.3647335076296239e+00  -2.8408820442352969e+00  -1.8105405821020528e+00  -2.7291151228408523e+00  -2.2987005165828664e+00  -3.9333860399150691e+00  -9.0737300214344359e+00  -1.2212356351239013e+01  -6.9362689890730715e+00  -1.0120333178670924e+01  -1.0797407004932976e+01  -6.8345304282224841e+00  -1.8141474471906292e+01  -2.2855817187232120e+01  -1.2519722244807557e+01  -1.6970399523292230e+01  -1.4618202755455677e+01  -2.8063777328940635e+01  -1.8846496959213745e+01  -6.1280140145572259e+00  -4.8895713056239183e+00  -8.1126753888168075e+00  -1.0965240973709344e+01  -6.9422951143828957e+00  -1.9285873419453576e+00  -7.5739353393724151e+00  -1.1045611234509620e+01  -8.4475636642293139e+00  -7.9115344457226957e+00  -7.3292761674048474e+00  -1.2029368977124609e+01  -1.0108992067705831e+01  -8.6234344080413692e+00  -1.1147161458222833e+01  -2.1533192746586195e+01  -1.1471313677757781e+01  -3.0232041630791091e+01  -3.1514263576771288e+01  -2.8051512630430206e+01  -8.9196600177359748e+00  -1.1783198778380658e+01  -2.0206812576642253e+01  -5.0165595549299731e+00  3.4374723732075285e-01  -4.2075142347807661e+00  -1.3719424850574397e+01  -8.8827408665438963e+00  -1.7100688584745249e+01  -2.0292436622564818e+01  -1.8026606829471330e+01  -7.2083553304032950e+00  -2.3152728034120777e+01  -2.1419708437044974e+01  -1.5945112948273158e+01  -2.1344068188744508e+01  -1.6543648628540680e+01  -2.2979032296856623e+01  -3.4549359209695105e+01  -2.0074938915423512e+01  -1.9948666578207504e+01  -1.4269697449792281e+01  -6.4822987857579815e+00  -9.2773887910157420e+00  -1.1368302861998099e+01  -6.6341498186477237e+00  -9.8256225425231580e+00  -2.1536376466810925e+01  -2.6555782683803379e+01  -1.6758279729787798e+01  -1.7014144037869173e+01  -1.0125766085500667e+01  -3.8851883594202352e+00  -5.9006976257967336e+00  -1.4391458743817861e+01  -1.3842490068336559e+01  -1.6296038335066850e+01  -3.0920323635292874e+01  -2.8137947588069537e+01  -3.6512095563534402e+01  -4.3715052779894926e+01  -5.2558088409537064e+01  -5.5560521184104438e+01  -6.8706833310458492e+01  -6.3399009263306993e+01  -6.5693185458943475e+01  -6.9135655421594379e+01  -7.4966348504241694e+01  -7.9653250971027177e+01  -8.5671385365086422e+01  -7.7975583419802646e+01  -7.5529973916282017e+01  -7.4307696983194958e+01  -6.8996813334018185e+01  -5.7190733868824069e+01  -5.4234501547241834e+01  -5.3457707759558019e+01  -5.1451096997588365e+01  -4.6797496164637018e+01  -4.3772763516406350e+01  -4.1874957734992343e+01  -3.9025265840026080e+01  -3.7688241342374603e+01  -3.5232669652656917e+01  -3.3255874342660114e+01  -3.4454056853973483e+01  -3.3314401421220730e+01  -3.2133097065778145e+01  -3.0101754595244280e+01  -2.8414958258213584e+01  -2.4909440677601157e+01  -2.3100883857986677e+01  -2.0570895660449821e+01  -1.8322048770742001e+01  -1.5600636988409617e+01  -1.3244481569878497e+01  -1.1639971414089556e+01  -8.4749539894343329e+00  -7.0358911614480046e+00  -4.9631965711202621e+00  -1.9018474666770755e+00  -2.1958428451292292e+01  -2.2709730092108614e+01  -2.0885185921328425e+01  -2.2862462799525538e+01  -2.6551047954387002e+01  -2.9670641818932975e+01  -2.2494966309620850e+01  -2.3512475871710251e+01  -2.3191859037915478e+01  -2.3057349443734456e+01  -5.1827965069530570e+00  -1.0577521348843820e+01  -1.2856013076532657e+01  -2.1173593138511350e+01  -2.2952368623325192e+01  -2.7792066702066396e+01  -3.3503222219275713e+01  -2.6564276441013384e+01  -1.7915494843250933e+01  -1.7016266186866069e+01  -2.7259970977168582e+01  -3.1641456888222724e+01  -3.0930811913543803e+01  -1.9507603378674492e+01  -2.3806293205642973e+01  -1.9750522621718183e+01  -2.4188643679370248e+01  -1.3637162470767148e+01  -1.1482419758623756e+01  -8.4424486812730954e+00  -4.0487924757194271e+00  -5.6780694642450769e+00  -6.4395700230754791e+00  -7.7644401381961536e+00  -1.5710430650835587e+01  -1.5737141220022801e+01  -3.3092600597864262e+01  -4.2624935400831475e+01  -3.0005017735169787e+01  -2.2474103351903544e+01  -6.0265971673560266e+01  -7.5153179147308080e+01  -4.3805457778333214e+01  -4.8334445954418790e+01  -6.1287228640408301e+01  -8.5375543585017255e+01  -1.4614070878081969e+02  -1.0731107759195189e+02  -4.1985437453910528e+01  -3.6536406784417508e+01  -9.2484705613652274e+00  -1.6696130885554183e+01  -1.2458986857026101e+01  -9.0521610540482840e+01  -8.3053874041022752e+01  -8.4451435259926228e+01  -3.7817992932386048e+01  -3.0926959750645302e+01  -4.1781009848074767e+01  -1.2679810211516804e+01  -1.6986501385062070e+01  -2.2079776296186779e+01  -2.9534886268401284e+01  -2.3122450405395430e+01  -6.2378756328028672e+01  -2.1943384682271617e+01  -3.0853690534647505e+01  -3.4410316165791613e+01  -3.7335744542280409e+01  -3.6661256125215480e+01  -5.1342475401266832e+01  -3.8782034155844663e+01  -7.7564260969957289e+01  -9.5462059197811243e+01  -5.7424663047955818e+01  -3.9206550793123462e+01  -7.7898570058786746e+01  -1.6600122161285952e+02  -5.0580018614207447e+01  -6.0358058414174543e+01  -6.0176359445956564e+01  -8.4386611848039806e+01  -8.3771337663692151e+01  -9.4248056696045552e+01  -2.6480825536494233e+01  -1.5717845938157815e+01  -2.6254202777852178e+01  -3.2607673048575293e+01  -3.0255941626015179e+01  -1.0675467174920784e+02  -6.5785245462626648e+01  -1.0770781929546825e+02  -6.3944139927757632e+01  -5.4942948103380935e+01  -3.2793857306178580e+01  -3.0967446421932276e+01  -2.5242216261176729e+01  -4.6493832848212399e+01  -5.3097454140033882e+01  -4.2789494822974603e+01  -3.8361109297648113e+01  -4.4378993568397531e+00  -2.0039241876207178e+01  -2.6106603338360717e+01  -1.1602265425817653e+02  -1.4277281775717597e+02  -9.7401435319468675e+01  -1.0005380077005091e+02  -8.4904265230920274e+01  -1.1314598662420872e+02  -1.1030778102125012e+02  -3.1214208969760797e+01  -2.5225684792544392e+01  -3.8880153253375056e+01  -1.3263300967903103e+02  -1.0191470043978029e+02  -1.2915412052937234e+02  -6.0314957135901714e+01  -4.1035371782525999e+01  -2.8298488803059740e+01  -1.0179747906435261e+02  -9.6714889257695262e+01  -9.3502463593751287e+01  -5.3411213359966979e+01  -9.6055360662072982e+00  -5.6445045308574677e+01  -4.5075970860809292e+01  -1.5883176151137505e+01  -1.4708007216607053e+01  -2.7797444376738330e+01  -2.5765580410220231e+01  -4.2938915186752325e+01  -2.6560518012142381e+01  -2.3083844821315303e+01  -6.7160809439591773e+01  -8.9289721432455096e+01  -8.6203522400820447e+01  -2.8319009619131396e+01  -1.7473953110969752e+01  -2.7931631743899196e+01  -3.0643864163994589e+01  -6.4558911180316700e+00  -1.3170146568944828e+01  -1.1351490567209638e+02  -1.0458863742658116e+02  -1.1690293037992321e+02  -1.0098405167098255e+02  -5.8407767118534238e+01  -8.4226164528634570e+01  -6.2334014924204702e+01  -7.7549273420045338e+01  -7.3701865879209421e+01  -9.6286926864325068e+01  -7.1587406984792693e+01  -9.5503931986296379e+01  -8.6516120169552465e+01  -6.5983568045090252e+01  -1.6498494353651083e+01  -2.1037170893138324e+01  -1.2381829544315028e+02  -7.8741223949320101e+01  -6.2128974075459837e+01  -1.3412754900954556e+02  -9.3857631357283662e+00  -1.5571695143390791e+01  -1.1140339871556288e+01  -1.6935552867534284e+01  -1.8406048299308363e+01  -1.3415495986079191e+02  -1.5838183748575756e+02  -1.5113532881066152e+02  -6.1323113264598469e+01  -6.3567923325701756e+01  -3.7486191623859128e+01  -5.7802419786439785e+01  -5.2771859122263400e+01  -6.3621763624066709e+01  -4.2516906577134428e+01  -1.0439884562353481e+02  -8.5605493973975442e+01  -8.0872140761060791e+01  -9.1566426722949359e+01  -8.6909601376508732e+01  -8.3178610701219128e+01  -1.3578707512674590e+01  -7.9776430268044138e+01  -9.3986439585387600e+01  -4.5440874601694553e+01  -1.3041362791173325e+01  -6.7990272701734028e+01  -2.8461152566653034e+01  -1.9588178454459126e+01  -5.4032288755040739e+01  -5.3662985714070487e+01  -7.2902883885695601e+01  -2.6914584949799689e+01  -3.4340569540933487e+01  -7.9616390014510102e+01  -4.6612054537510218e+01  -2.7760107508538795e+01  -2.3159674277240558e+01  -2.5300258199977549e+01  -5.6883611390989920e+01  -1.0086021280645194e+02  -9.3637250749433505e+01  -1.2019417511778592e+02  -2.6177890452802060e+01  -7.6629675624709819e+01  -7.0168521894602634e+01  -7.8632871064922000e+01  -1.1960430977670784e+01  -7.5379019444826170e+01  -8.5390879205729618e+01  -3.0000456568108824e+01  -7.5549786489554236e+01  -9.1679227944853807e+01  -7.7870122808015140e+01  -9.7613099515719099e+00  -5.9293659823604202e+01  -4.3998200460509551e+01  -2.4004615486999505e+01  -3.6893732112510044e+01  -2.8128113490922665e+01  -2.4494097697789741e+01  -6.9578778202588211e+01  -5.1527129017888598e+01  -2.8967959792621691e+01  -5.2675510850735165e+01  -1.9816329818402469e+01  -6.9665690259213847e+01  -2.9961650509907347e+01  -7.5076440148020112e+01  -9.6147032353142947e+01  -6.1066781913274575e+01  -1.0205777192032507e+02  -9.5939835871927912e+01  -1.0362815957238931e+02  -9.7117326142614843e+01  -5.9182023584526682e+01  -8.3099956474021440e+01  -7.4728848046335770e+01  -2.7679785980906480e+01  -8.5906060226875823e+01  -8.7122614943356808e+01  -9.8740852087174005e+01  -1.0024595494347335e+02  -9.0872364951851196e+01  -1.2384283492333067e+02  -6.2542337281057613e+01  -5.9131467083708387e+01  -6.2950229126198693e+01  -1.0439337793687989e+02  -8.2207787174016232e+01  -1.0057801035491516e+02  -6.3450178814847575e+01  -1.8945010263368587e+01  -9.5896726077560047e+01  -9.7587790247835756e+01  -9.7065084359808395e+01  -8.9597292437558366e+01  -7.5954444302559679e+01  -1.7404600098891339e+02  -1.0499858632624070e+02  -4.6654839412937754e+01  -4.0875657687828443e+01  -4.2965722684455287e+01  -2.6087813935156433e+01  -5.3771437447477240e+01  -5.3408333500526481e+01  -5.3852606758933206e+01  -5.1136275520228153e+01  -5.5960344782397527e+01  -2.3447310180464839e+01  -3.5360729014393613e+01  -7.7660792103424697e+01  -9.1229515758252631e+01  -1.0327611003566614e+02  -1.1866387751744794e+02  -1.1377269820165832e+02  -1.0750981566375178e+02  -6.9467504692606724e+01  -4.8823530529017674e+01  -2.6495204978082626e+01  -1.2033958760665183e+02  -1.0013635760842175e+02  -3.3117331330996628e+01  -5.0470994107260388e+01  -4.4001457533323702e+01  -3.2586692205324645e+01  -1.1736283894004716e+01  -5.3282954374771926e+01  -1.1632643373730403e+02  -8.1866354887108329e+01  -1.5309628636600911e+02  -1.0131364278369357e+02  -8.4605806905838477e+01  -4.3431832436116004e+01  -5.1213130039734850e+01  -5.8004073844096787e+01  -4.8126212627760218e+01  -7.4577795632013562e+01  -7.5170549955384516e+01  -8.0272032750740593e+01  -6.9192232982675193e+01  -1.1751962746598991e+02  -9.9485950449157571e+01  -8.1272207411460869e+01  -9.1532557750129882e+01  -3.5969345732109332e+01  -1.3885602666113834e+02  -1.6332381806865371e+01  -5.1212028474403411e+01  -8.4356518611951913e+01  -5.0279149627604333e+01  -6.8993231762532005e+01  -1.0826402232956663e+02  -5.2614222340733626e+01  -3.1523828436738590e+01  -9.0775864672718811e+01  -5.7328704755546163e+01  -1.3567856685219320e+02  -9.9376626161558036e+01  -1.1645703832450133e+02  -2.2082069895371660e+01  -2.9728045063700979e+01  -8.8569617862012549e+01  -3.9864558709800207e+01  -4.8812959154473035e+01  -5.1366056704627709e+01  -1.1387618350028178e+02  -6.3949981742071927e+01  -8.7748666441622035e+01  -7.9117869742529251e+01  -6.8575799390712092e+01  -6.8708117143959427e+01  -8.3361866023109869e+01  -2.4669929571650265e+01  -3.3414083598384465e+01  -3.2942601635503344e+01  -3.8569340809706198e+01  -8.9075928071116039e+01  -4.1640224991070291e+01  -5.4232284066185770e+01  -1.8374005546418466e+01  -9.9795232311180811e+01  -1.1731690455149829e+01  -2.7844324729023118e+01  -5.7229912480486384e+01  -3.5436310070421840e+01  -8.5825045257210206e+01  -1.2166080834025746e+02  -5.8114129654179798e+01  -2.7859748730198231e+01  -3.7134651504256560e+01  -1.2222168073608108e+01  -1.8532069976527840e+01  -7.2525398585635457e+01  -5.4554144582642358e+01  -2.8963013409016000e+01  -4.0342512314386369e+01  -3.7823787127521001e+01  -1.1137785745999921e+02  -9.5612519259868264e+01  -9.3917525934729156e+01  -9.4898829642998663e+01  -9.3272563764749862e+01  -9.7694185300266611e+01  -5.0069843929092805e+01  -4.1722886136981380e+01  -8.1060941386089411e+01  -2.0649440518120791e+01  -4.7770247978057483e+01  -1.7098309929170647e+01  -7.6942012397277466e+01  -9.0645063672749458e+01  -1.4087472801684440e+01  -3.1591527227247489e+01  -3.3487162677350838e+01  -5.1922114665507209e+01  -6.2587101137876992e+01  -7.5704693062445642e+01  -5.9635211078147421e+01  -3.6305389080095480e+01  -4.0300292778684337e+01  -7.5873574502156387e+01  -8.3577893324447643e+01  -6.2172170537699294e+01  -4.6826906836934718e+01  -9.8933796755950567e+01  -1.5004772861312728e+02  -1.0530734296042137e+02  -4.1842846310858711e+01  -8.7877462786095535e+01  -6.2375254652078723e+01  -3.4660865861990587e+01  -6.1047398975944184e+01  -7.3849228166643911e+01  -7.6431813391508172e+01  -5.2432032593404280e+01  -9.2001667628935252e+01  -2.6724283133314415e+01  -2.3755137994328322e+01  -1.3589637291066745e+02  -3.5196402392764199e+01  -8.3047866668847135e+01  -1.9429603556202596e+02  -2.7173317454266584e+01  -5.1325308678956489e+01  -4.3771141404705212e+01  -4.5476339259097372e+01  -5.9262277905539847e+01  -4.3119067089519056e+01  -6.8000013582379609e+01  -1.0550505579859301e+02  -9.9731190221492653e+01  -7.8664974341641582e+01  -8.1968605743677074e+01  -1.4947537571944471e+01  -5.9051818363666797e+01  -2.1076018679431112e+01  -1.2887285597765430e+02  -1.3760896060373096e+02  -7.1292996871894360e+01  -3.7924224656200138e+01  -5.5785528461994325e+01  -1.0783603221387780e+02  -1.1578032783812475e+02  -8.7580289209098652e+01  -6.8056748827200124e+01  -2.3256199639300778e+01  -2.0456859439240432e+02  -1.1723996915037657e+02  -1.6470403406827921e+02  -7.2868246411205547e+01  -6.4696602184872972e+01  -2.3582095334814070e+01  -2.1114791701943854e+01  -3.4305296945127402e+01  -1.3747163646909831e+02  -3.9070298320383031e+01  -1.0947968698770725e+02  -1.2832929012171303e+02  -5.0721496323710483e+01  -5.8108030590793760e+01  -3.4701043437319328e+01  -2.9312501125002406e+01  -1.0359385726333329e+02  -2.9677687643534682e+01  -3.3829652575727536e+01  -6.6791197428881105e+01  -4.2231007341240641e+01  -1.8039028435240522e+02  </DataArray> 
</PointData> 
</Piece>
</UnstructuredGrid>
</VTKFile>